# LAMMPS data file for replicating chromosomes formed of rigid body monomers

8612		atoms
8		atom types
6050		ellipsoids
6001		bonds
2		bond types
12002		angles
4		angle types


-1131	1131	xlo xhi
-1131	1131	ylo yhi
-1131	1131	zlo zhi

Atoms # atom-ID atom-type x y z molecule-ID ellipsoid-flag density

1	5	114.709  	627.716  	176.926  	-1	1	1
2	3	103.923  	601.247  	191.488  	-1	1	1
3	3	87.9874  	577.247  	203.609  	-1	1	1
4	3	58.5094  	577.803  	214.624  	-1	1	1
5	3	40.1743  	600.074  	202.116  	-1	1	1
6	3	64.1523  	615.544  	214.375  	-1	1	1
7	3	87.2124  	619.158  	233.455  	-1	1	1
8	3	109.651  	620.596  	253.508  	-1	1	1
9	3	126.159  	615.006  	280.257  	-1	1	1
10	3	143.943  	627.399  	258.945  	-1	1	1
11	3	149.646  	654.094  	246.313  	-1	1	1
12	3	150.687  	670.634  	219.547  	-1	1	1
13	3	161.454  	665.89  	192.141  	-1	1	1
14	3	182.324  	648.784  	177.029  	-1	1	1
15	3	196.513  	624.89  	164.762  	-1	1	1
16	3	203.353  	594.671  	164.044  	-1	1	1
17	3	208.714  	574.356  	185.571  	-1	1	1
18	3	209.871  	558.13  	210.92  	-1	1	1
19	3	213.546  	548.999  	239.367  	-1	1	1
20	3	219.868  	522.508  	254.207  	-1	1	1
21	3	208.294  	498.552  	239.931  	-1	1	1
22	3	196.022  	495.131  	212.602  	-1	1	1
23	3	193.519  	510.657  	185.289  	-1	1	1
24	3	190.351  	530.411  	161.322  	-1	1	1
25	3	201.645  	550.105  	142.075  	-1	1	1
26	3	203.213  	574.079  	124.296  	-1	1	1
27	3	208.837  	599.26  	105.959  	-1	1	1
28	3	215.374  	627.572  	95.318  	-1	1	1
29	3	228.346  	651.692  	109.199  	-1	1	1
30	3	222.533  	662.201  	137.318  	-1	1	1
31	3	214.448  	674.148  	165.196  	-1	1	1
32	3	212.941  	684.422  	193.532  	-1	1	1
33	3	220.155  	712.435  	203.702  	-1	1	1
34	3	240.688  	734.866  	201.953  	-1	1	1
35	3	268.69  	731.772  	187.163  	-1	1	1
36	3	287.068  	707.061  	187.205  	-1	1	1
37	3	307.424  	687.322  	201.277  	-1	1	1
38	3	320.037  	674.041  	227.456  	-1	1	1
39	3	340.371  	670.17  	250.848  	-1	1	1
40	3	366.58  	656.782  	260.932  	-1	1	1
41	3	383.203  	637.237  	246.156  	-1	1	1
42	3	392.969  	622.01  	223.425  	-1	1	1
43	3	399.332  	615.329  	193.989  	-1	1	1
44	3	403.291  	610.125  	164.21  	-1	1	1
45	3	417.771  	611.356  	136.574  	-1	1	1
46	3	432.319  	631.34  	119.593  	-1	1	1
47	3	445.922  	637.167  	146.374  	-1	1	1
48	3	446.678  	638.524  	177.307  	-1	1	1
49	3	455.689  	636.836  	206.246  	-1	1	1
50	3	461.786  	629.489  	235.255  	-1	1	1
51	3	469.289  	614.87  	262.799  	-1	1	1
52	3	484.253  	598.352  	283.765  	-1	1	1
53	3	486.472  	567.217  	283.223  	-1	1	1
54	3	473.941  	540.728  	271.995  	-1	1	1
55	3	463.222  	519.768  	253.059  	-1	1	1
56	3	458.531  	499.619  	230.543  	-1	1	1
57	3	438.214  	479.973  	220.213  	-1	1	1
58	3	416.739  	466.917  	238.169  	-1	1	1
59	3	391.734  	475.394  	253.883  	-1	1	1
60	3	369.588  	488.562  	269.756  	-1	1	1
61	3	355.374  	513.681  	278.693  	-1	1	1
62	3	337.315  	534.906  	265.794  	-1	1	1
63	3	335.037  	561.957  	250.981  	-1	1	1
64	3	337.722  	591.09  	244.243  	-1	1	1
65	3	332.772  	616.84  	260.032  	-1	1	1
66	3	335.983  	630.921  	286.3  	-1	1	1
67	3	344.225  	630.617  	315.151  	-1	1	1
68	3	353.015  	611.273  	337.371  	-1	1	1
69	3	366.433  	602.048  	310.912  	-1	1	1
70	3	371.081  	585.367  	285.417  	-1	1	1
71	3	371.523  	574.957  	256.102  	-1	1	1
72	3	363.333  	576.306  	226.362  	-1	1	1
73	3	346.163  	585.348  	201.543  	-1	1	1
74	3	339.025  	602.224  	176.481  	-1	1	1
75	3	355.933  	580.008  	164.678  	-1	1	1
76	3	378.181  	563.848  	150.132  	-1	1	1
77	3	393.192  	543.496  	131.871  	-1	1	1
78	3	404.917  	545.526  	102.438  	-1	1	1
79	3	411.701  	567.458  	80.9006  	-1	1	1
80	3	408.591  	598.891  	81.5369  	-1	1	1
81	3	391.511  	622.927  	72.8648  	-1	1	1
82	3	366.004  	633.066  	60.1299  	-1	1	1
83	3	336.109  	632.492  	53.862  	-1	1	1
84	3	307.457  	622.441  	56.9858  	-1	1	1
85	3	298.643  	626.195  	86.7399  	-1	1	1
86	3	278.948  	648.299  	81.362  	-1	1	1
87	3	256.567  	635.023  	65.164  	-1	1	1
88	3	231.103  	624.417  	53.0727  	-1	1	1
89	3	204.597  	609.07  	48.4709  	-1	1	1
90	3	181.453  	600.975  	30.4242  	-1	1	1
91	3	159.2  	610.446  	12.3323  	-1	1	1
92	3	157.197  	639.513  	3.81373  	-1	1	1
93	3	171.89  	663.202  	-9.09901  	-1	1	1
94	3	174.255  	689.255  	-28.1803  	-1	1	1
95	3	163.969  	702.124  	-53.5924  	-1	1	1
96	3	168.675  	706.718  	-83.9174  	-1	1	1
97	3	188.549  	710.975  	-107.58  	-1	1	1
98	3	214.587  	704.103  	-121.073  	-1	1	1
99	3	239.896  	693.893  	-106.434  	-1	1	1
100	3	246.784  	680.281  	-78.4659  	-1	1	1
101	3	249.042  	669.485  	-49.9988  	-1	1	1
102	3	251.266  	668.068  	-18.9149  	-1	1	1
103	3	259.411  	660.059  	9.47496  	-1	1	1
104	3	287.559  	668.554  	-1.04276  	-1	1	1
105	3	302.547  	686.729  	-21.2702  	-1	1	1
106	3	293.178  	694.863  	-49.3015  	-1	1	1
107	3	298.451  	700.928  	-77.9558  	-1	1	1
108	3	312.757  	712.431  	-101.418  	-1	1	1
109	3	341.034  	720.689  	-111.102  	-1	1	1
110	3	365.056  	736  	-95.3878  	-1	1	1
111	3	374.251  	746.128  	-69.5029  	-1	1	1
112	3	355.686  	742.363  	-45.3725  	-1	1	1
113	3	326.209  	736.071  	-55.3231  	-1	1	1
114	3	308.044  	746.249  	-77.9512  	-1	1	1
115	3	305.692  	748.877  	-107.286  	-1	1	1
116	3	314.14  	745.023  	-136.705  	-1	1	1
117	3	343.729  	747.826  	-144.273  	-1	1	1
118	3	374.687  	749.948  	-152.185  	-1	1	1
119	3	400.497  	734.814  	-158.765  	-1	1	1
120	3	421.034  	725.768  	-179.301  	-1	1	1
121	3	427.655  	737.311  	-206.714  	-1	1	1
122	3	418.898  	744.097  	-235.152  	-1	1	1
123	3	402.486  	749.405  	-261.262  	-1	1	1
124	3	374.522  	750.598  	-272.267  	-1	1	1
125	3	346.235  	747.467  	-260.228  	-1	1	1
126	3	330.086  	731.23  	-238.487  	-1	1	1
127	3	333.799  	719.543  	-209.731  	-1	1	1
128	3	356.295  	698.536  	-198.884  	-1	1	1
129	3	380.335  	683.541  	-187.829  	-1	1	1
130	3	404.755  	666.506  	-182.104  	-1	1	1
131	3	418.353  	644.701  	-197.743  	-1	1	1
132	3	429.249  	629.625  	-221.549  	-1	1	1
133	3	427.581  	612.532  	-246.367  	-1	1	1
134	3	421.972  	591.463  	-267.97  	-1	1	1
135	3	409.413  	572.687  	-288.51  	-1	1	1
136	3	402.88  	550.116  	-310.267  	-1	1	1
137	3	386.579  	525.439  	-318.619  	-1	1	1
138	3	369.245  	507.486  	-301.773  	-1	1	1
139	3	367.646  	504.762  	-271.304  	-1	1	1
140	3	391.187  	522.005  	-261.452  	-1	1	1
141	3	419.639  	534.605  	-262.547  	-1	1	1
142	3	447.517  	547.003  	-272.028  	-1	1	1
143	3	476.35  	551.132  	-282.919  	-1	1	1
144	3	507.052  	554.484  	-291.646  	-1	1	1
145	3	536.413  	555.25  	-298.978  	-1	1	1
146	3	563.628  	547.416  	-289.229  	-1	1	1
147	3	573.04  	530.58  	-263.656  	-1	1	1
148	3	567.601  	515.525  	-236.425  	-1	1	1
149	3	545.773  	507.745  	-217.253  	-1	1	1
150	3	519.712  	495.809  	-207.824  	-1	1	1
151	3	506.053  	474.833  	-190.332  	-1	1	1
152	3	501.625  	464.991  	-160.782  	-1	1	1
153	3	523.373  	453.554  	-141.441  	-1	1	1
154	3	551.939  	442.21  	-140.637  	-1	1	1
155	3	579.47  	434.475  	-150.533  	-1	1	1
156	3	607.489  	422.846  	-159.211  	-1	1	1
157	3	631.254  	405.887  	-167.632  	-1	1	1
158	3	641.523  	375.447  	-167.337  	-1	1	1
159	3	649.197  	362.73  	-140.439  	-1	1	1
160	3	646.388  	362.568  	-110.229  	-1	1	1
161	3	646.807  	375.063  	-82.4875  	-1	1	1
162	3	641.649  	388.977  	-55.2988  	-1	1	1
163	3	635.827  	403.055  	-28.6352  	-1	1	1
164	3	628.447  	422.746  	-6.1867  	-1	1	1
165	3	616.453  	437.954  	17.9516  	-1	1	1
166	3	601.061  	448.145  	42.306  	-1	1	1
167	3	573.787  	450.252  	53.7724  	-1	1	1
168	3	545.334  	448.978  	63.7463  	-1	1	1
169	3	514.463  	444.869  	65.8669  	-1	1	1
170	3	499.55  	455.1  	90.5465  	-1	1	1
171	3	501.231  	479.542  	112.315  	-1	1	1
172	3	519.948  	503.825  	117.426  	-1	1	1
173	3	529.612  	530.27  	105.613  	-1	1	1
174	3	536.676  	548.435  	80.2072  	-1	1	1
175	3	547.864  	570.518  	63.3111  	-1	1	1
176	3	558.164  	590.138  	41.477  	-1	1	1
177	3	560.715  	612.382  	21.7762  	-1	1	1
178	3	573.486  	623.085  	-3.86238  	-1	1	1
179	3	582.467  	620.695  	-32.4203  	-1	1	1
180	3	580.492  	591.163  	-44.3959  	-1	1	1
181	3	586.1  	562.426  	-32.9432  	-1	1	1
182	3	594.705  	547.958  	-7.23186  	-1	1	1
183	3	615.907  	534.297  	11.7539  	-1	1	1
184	3	636.021  	527.179  	34.1347  	-1	1	1
185	3	646.97  	525.101  	62.7018  	-1	1	1
186	3	665.298  	545.597  	74.2729  	-1	1	1
187	3	675.325  	573.3  	70.77  	-1	1	1
188	3	659.069  	599.717  	73.3316  	-1	1	1
189	3	628.022  	602.341  	75.2087  	-1	1	1
190	3	600.345  	600.382  	88.5417  	-1	1	1
191	3	583.088  	588.496  	110.893  	-1	1	1
192	3	561.789  	569.721  	124.258  	-1	1	1
193	3	552.164  	542.222  	131.519  	-1	1	1
194	3	562.246  	516.167  	146.325  	-1	1	1
195	3	573.852  	492.823  	163.301  	-1	1	1
196	3	577.305  	468.561  	181.624  	-1	1	1
197	3	590.139  	459.385  	208.374  	-1	1	1
198	3	610.713  	457.844  	231.989  	-1	1	1
199	3	612.672  	462.545  	261.885  	-1	1	1
200	3	610.597  	464.25  	292.089  	-1	1	1
201	3	604.542  	478.279  	318.881  	-1	1	1
202	3	584.939  	484.898  	341.613  	-1	1	1
203	3	556.214  	487.666  	352.629  	-1	1	1
204	3	530.51  	477.197  	366.751  	-1	1	1
205	3	502.054  	474.043  	376.727  	-1	1	1
206	3	477.712  	455.173  	382.177  	-1	1	1
207	3	460.551  	432.654  	372.365  	-1	1	1
208	3	444.633  	418.544  	350.558  	-1	1	1
209	3	427.573  	409.653  	327.542  	-1	1	1
210	3	425.803  	405.482  	297.805  	-1	1	1
211	3	442.952  	419.644  	277.82  	-1	1	1
212	3	471.983  	423.876  	272.658  	-1	1	1
213	3	500.047  	433.579  	278.457  	-1	1	1
214	3	527.982  	442.818  	284.045  	-1	1	1
215	3	556.928  	435.202  	293.795  	-1	1	1
216	3	583.894  	426.953  	305.309  	-1	1	1
217	3	603.538  	421.459  	328.733  	-1	1	1
218	3	611.482  	420.514  	359.749  	-1	1	1
219	3	605.853  	419.84  	388.776  	-1	1	1
220	3	588.1  	395.141  	382.96  	-1	1	1
221	3	574.118  	370.632  	370.941  	-1	1	1
222	3	573.857  	355.461  	344.436  	-1	1	1
223	3	561.551  	332.122  	329.083  	-1	1	1
224	3	556.165  	316.505  	303.572  	-1	1	1
225	3	537.362  	323.247  	280.276  	-1	1	1
226	3	516.771  	330.936  	258.959  	-1	1	1
227	3	498.564  	354.903  	257.564  	-1	1	1
228	3	488.489  	370.99  	280.627  	-1	1	1
229	3	475.564  	384.629  	306.48  	-1	1	1
230	3	469.225  	391.842  	335.79  	-1	1	1
231	3	473.851  	397.137  	364.815  	-1	1	1
232	3	477.155  	393.103  	396.715  	-1	1	1
233	3	484.321  	408.684  	421.932  	-1	1	1
234	3	469.84  	430.654  	437.586  	-1	1	1
235	3	453.125  	455.272  	444.036  	-1	1	1
236	3	438.963  	482.993  	444.288  	-1	1	1
237	3	424.522  	504.651  	428.659  	-1	1	1
238	3	407.796  	528.009  	422.848  	-1	1	1
239	3	380.598  	542.613  	430.373  	-1	1	1
240	3	365.296  	553.553  	454.181  	-1	1	1
241	3	356.568  	553.255  	484.634  	-1	1	1
242	3	359.017  	537.889  	510.644  	-1	1	1
243	3	363.391  	517.093  	532.495  	-1	1	1
244	3	367.625  	487.081  	537.365  	-1	1	1
245	3	373.907  	470.732  	512.729  	-1	1	1
246	3	378.038  	459.267  	485.194  	-1	1	1
247	3	375.719  	452.297  	455.456  	-1	1	1
248	3	370.063  	443.648  	425.103  	-1	1	1
249	3	357.499  	432.813  	399.103  	-1	1	1
250	3	356.127  	429.081  	369.232  	-1	1	1
251	3	353.12  	429.089  	338.412  	-1	1	1
252	3	351.115  	427.069  	308.162  	-1	1	1
253	3	368.853  	405.071  	297.124  	-1	1	1
254	3	375.788  	394.078  	326.662  	-1	1	1
255	3	381.138  	389.118  	356.732  	-1	1	1
256	3	378.418  	389.405  	387.755  	-1	1	1
257	3	358.627  	386.068  	409.805  	-1	1	1
258	3	332.418  	396.067  	419.212  	-1	1	1
259	3	309.564  	415.838  	418.126  	-1	1	1
260	3	294.639  	441.158  	426.386  	-1	1	1
261	3	296.743  	461.236  	449.496  	-1	1	1
262	3	305.39  	466.05  	478.279  	-1	1	1
263	3	295.511  	446.334  	499.625  	-1	1	1
264	3	305.778  	421.48  	516.08  	-1	1	1
265	3	321.493  	399.545  	501.334  	-1	1	1
266	3	337.783  	380.008  	484.271  	-1	1	1
267	3	363.565  	371.742  	468.891  	-1	1	1
268	3	391.497  	369.566  	456.431  	-1	1	1
269	3	421.868  	370.481  	456.606  	-1	1	1
270	3	440.731  	375.842  	480.726  	-1	1	1
271	3	441.374  	381.092  	511.177  	-1	1	1
272	3	465.801  	382.267  	528.98  	-1	1	1
273	3	492.832  	371.311  	523.024  	-1	1	1
274	3	516.106  	361.827  	504.007  	-1	1	1
275	3	529.082  	364.9  	476.656  	-1	1	1
276	3	532.942  	371.027  	447.307  	-1	1	1
277	3	516.008  	369.527  	422.758  	-1	1	1
278	3	495.13  	359.328  	401.713  	-1	1	1
279	3	481.561  	352.589  	375.284  	-1	1	1
280	3	480.569  	331.83  	352.777  	-1	1	1
281	3	504.05  	313.261  	348.738  	-1	1	1
282	3	529.915  	296.227  	352.692  	-1	1	1
283	3	556.581  	289.995  	340.381  	-1	1	1
284	3	570.179  	272.438  	318.971  	-1	1	1
285	3	577.219  	251.265  	297.738  	-1	1	1
286	3	566.008  	227.877  	281.083  	-1	1	1
287	3	552.451  	207.246  	299.516  	-1	1	1
288	3	549.294  	186.827  	321.942  	-1	1	1
289	3	548.846  	167.747  	346.862  	-1	1	1
290	3	560.031  	176.376  	374.763  	-1	1	1
291	3	576.509  	188.598  	396.851  	-1	1	1
292	3	600.361  	207.014  	397.032  	-1	1	1
293	3	625.318  	220.996  	387.281  	-1	1	1
294	3	646.696  	221.549  	365.208  	-1	1	1
295	3	666.379  	207.123  	346.492  	-1	1	1
296	3	679.297  	192.998  	323.24  	-1	1	1
297	3	691.891  	176.444  	300.883  	-1	1	1
298	3	694.499  	149.018  	286.053  	-1	1	1
299	3	700.322  	121.002  	273.437  	-1	1	1
300	3	707.65  	98.2237  	255.241  	-1	1	1
301	3	711.918  	84.276  	227.472  	-1	1	1
302	3	737.505  	99.3603  	232.715  	-1	1	1
303	3	767.221  	97.253  	228.496  	-1	1	1
304	3	797.339  	93.0459  	235.151  	-1	1	1
305	3	823.617  	92.1161  	219.62  	-1	1	1
306	3	847.87  	89.3264  	200.968  	-1	1	1
307	3	824.895  	102.628  	184.453  	-1	1	1
308	3	798.422  	119.055  	180.897  	-1	1	1
309	3	772.875  	133.46  	189.931  	-1	1	1
310	3	755.866  	144.128  	213.844  	-1	1	1
311	3	728.797  	147.17  	226.513  	-1	1	1
312	3	700.747  	134.617  	228.366  	-1	1	1
313	3	675.56  	127.888  	243.772  	-1	1	1
314	3	658.002  	112.662  	265.068  	-1	1	1
315	3	654.234  	91.8044  	287.606  	-1	1	1
316	3	656.29  	61.6943  	284.778  	-1	1	1
317	3	660.52  	31.8263  	287.333  	-1	1	1
318	3	664.374  	1.71635  	283.969  	-1	1	1
319	3	665.506  	-28.0608  	278.152  	-1	1	1
320	3	663.165  	-59.6906  	277.088  	-1	1	1
321	3	660.811  	-73.0102  	304.631  	-1	1	1
322	3	658.018  	-56.5618  	331.27  	-1	1	1
323	3	675.583  	-34.5772  	341.302  	-1	1	1
324	3	690.21  	-11.4372  	327.625  	-1	1	1
325	3	699.323  	6.38833  	302.488  	-1	1	1
326	3	699.274  	8.79253  	271.799  	-1	1	1
327	3	695.655  	3.67553  	242.338  	-1	1	1
328	3	707.333  	-2.74742  	215.427  	-1	1	1
329	3	732.791  	-15.1768  	206.809  	-1	1	1
330	3	740.598  	-36.4448  	227.121  	-1	1	1
331	3	739.618  	-57.9925  	249.117  	-1	1	1
332	3	719.694  	-66.3448  	272.051  	-1	1	1
333	3	710.145  	-63.7468  	300.624  	-1	1	1
334	3	708.811  	-55.6973  	330.852  	-1	1	1
335	3	708.736  	-66.704  	360.018  	-1	1	1
336	3	691.165  	-61.2853  	384.951  	-1	1	1
337	3	681.713  	-50.2917  	411.917  	-1	1	1
338	3	673.951  	-33.2672  	436.205  	-1	1	1
339	3	658.449  	-6.49968  	435.818  	-1	1	1
340	3	639.028  	-25.3755  	422.351  	-1	1	1
341	3	625.841  	-50.9806  	413.065  	-1	1	1
342	3	617.552  	-76.4113  	400.353  	-1	1	1
343	3	620.621  	-100.931  	384.012  	-1	1	1
344	3	638.537  	-113.759  	362.752  	-1	1	1
345	3	663.63  	-130.946  	355.41  	-1	1	1
346	3	690.696  	-141.366  	346.67  	-1	1	1
347	3	709.473  	-137.141  	323.914  	-1	1	1
348	3	721.204  	-132.225  	295.259  	-1	1	1
349	3	714.565  	-137.379  	264.763  	-1	1	1
350	3	702.788  	-159.58  	247.507  	-1	1	1
351	3	680.536  	-178.955  	258.845  	-1	1	1
352	3	679.36  	-194.624  	286.693  	-1	1	1
353	3	697.081  	-185.95  	310.127  	-1	1	1
354	3	711.246  	-181.96  	337.294  	-1	1	1
355	3	709.639  	-179.729  	367.407  	-1	1	1
356	3	684.994  	-189.624  	384.056  	-1	1	1
357	3	663.828  	-211.813  	381.726  	-1	1	1
358	3	656.526  	-227.335  	355.944  	-1	1	1
359	3	668.635  	-243.766  	334.315  	-1	1	1
360	3	692.465  	-252.059  	317.312  	-1	1	1
361	3	714.403  	-248.674  	296.778  	-1	1	1
362	3	726.109  	-225.408  	280.482  	-1	1	1
363	3	733.547  	-201.844  	262.243  	-1	1	1
364	3	737.157  	-176.419  	244.891  	-1	1	1
365	3	734.749  	-153.818  	224.002  	-1	1	1
366	3	739.137  	-128.045  	207.472  	-1	1	1
367	3	732.208  	-119.126  	179.359  	-1	1	1
368	3	724.329  	-134.191  	153.069  	-1	1	1
369	3	696.675  	-148.497  	147.775  	-1	1	1
370	3	668.66  	-152.133  	133.184  	-1	1	1
371	3	639.786  	-150.365  	120.749  	-1	1	1
372	3	616.535  	-147.618  	102.27  	-1	1	1
373	3	593.187  	-135.264  	87.8852  	-1	1	1
374	3	578.547  	-119.817  	64.792  	-1	1	1
375	3	568.262  	-98.4733  	46.5253  	-1	1	1
376	3	561.948  	-71.318  	34.5621  	-1	1	1
377	3	563.315  	-44.891  	20.1315  	-1	1	1
378	3	574.876  	-37.6698  	-8.16341  	-1	1	1
379	3	586.331  	-59.0872  	-27.8158  	-1	1	1
380	3	591.102  	-87.4883  	-38.7762  	-1	1	1
381	3	598.597  	-117.213  	-36.8673  	-1	1	1
382	3	609.873  	-144.179  	-29.01  	-1	1	1
383	3	618.664  	-174.518  	-24.9452  	-1	1	1
384	3	643.394  	-191.325  	-21.6964  	-1	1	1
385	3	673.304  	-185.785  	-23.1371  	-1	1	1
386	3	699.142  	-172.511  	-31.7086  	-1	1	1
387	3	715.387  	-152.426  	-47.3781  	-1	1	1
388	3	730.948  	-128.131  	-57.6174  	-1	1	1
389	3	742.972  	-102.156  	-66.8087  	-1	1	1
390	3	765.592  	-81.5205  	-64.8861  	-1	1	1
391	3	796.594  	-79.8723  	-61.5392  	-1	1	1
392	3	820.444  	-97.6178  	-72.0542  	-1	1	1
393	3	823.43  	-127.443  	-82.1622  	-1	1	1
394	3	828.229  	-154.161  	-96.4665  	-1	1	1
395	3	818.15  	-180.975  	-106.262  	-1	1	1
396	3	787.346  	-181.55  	-109.041  	-1	1	1
397	3	756.285  	-178.695  	-105.041  	-1	1	1
398	3	737.08  	-155.363  	-108.105  	-1	1	1
399	3	719.119  	-132.576  	-115.487  	-1	1	1
400	3	702.918  	-107.155  	-120.576  	-1	1	1
401	3	691.074  	-79.8705  	-125.158  	-1	1	1
402	3	695.784  	-65.6426  	-151.802  	-1	1	1
403	3	695.572  	-57.4359  	-181.101  	-1	1	1
404	3	682  	-66.1902  	-207.979  	-1	1	1
405	3	670.345  	-76.5775  	-234.08  	-1	1	1
406	3	656.977  	-90.0637  	-257.515  	-1	1	1
407	3	638.711  	-99.8486  	-281.189  	-1	1	1
408	3	617.403  	-96.9606  	-302.371  	-1	1	1
409	3	596.677  	-84.14  	-283.049  	-1	1	1
410	3	585.647  	-62.1095  	-262.055  	-1	1	1
411	3	575.127  	-43.3881  	-238.325  	-1	1	1
412	3	569.112  	-14.3576  	-230.507  	-1	1	1
413	3	561.896  	15.7341  	-231.849  	-1	1	1
414	3	570.756  	10.6426  	-260.714  	-1	1	1
415	3	570.434  	-4.17558  	-286.653  	-1	1	1
416	3	551.191  	-23.7211  	-273.229  	-1	1	1
417	3	536.906  	-50.8909  	-272.632  	-1	1	1
418	3	533.347  	-80.0132  	-283.982  	-1	1	1
419	3	525.394  	-96.0754  	-309.705  	-1	1	1
420	3	501.161  	-114.06  	-315.505  	-1	1	1
421	3	480.262  	-128.339  	-297.73  	-1	1	1
422	3	452.863  	-135.35  	-283.67  	-1	1	1
423	3	429.222  	-125.599  	-268.597  	-1	1	1
424	3	412.043  	-113.808  	-245.57  	-1	1	1
425	3	395.737  	-104.93  	-221.881  	-1	1	1
426	3	369.077  	-105.557  	-206.983  	-1	1	1
427	3	340.355  	-113.41  	-200.924  	-1	1	1
428	3	315.486  	-129.953  	-205.065  	-1	1	1
429	3	310.462  	-158.126  	-218.965  	-1	1	1
430	3	332.69  	-174.383  	-232.293  	-1	1	1
431	3	361.901  	-179.161  	-227.717  	-1	1	1
432	3	384.481  	-172.037  	-208.843  	-1	1	1
433	3	413.852  	-166.474  	-207.797  	-1	1	1
434	3	444.394  	-163.98  	-211.585  	-1	1	1
435	3	448.258  	-177.137  	-239.211  	-1	1	1
436	3	436.921  	-193.173  	-263.349  	-1	1	1
437	3	430.169  	-212.311  	-286.514  	-1	1	1
438	3	418.126  	-229.754  	-309.104  	-1	1	1
439	3	415.217  	-221.147  	-338.908  	-1	1	1
440	3	408.05  	-199.346  	-358.885  	-1	1	1
441	3	395.559  	-175.739  	-374.686  	-1	1	1
442	3	386.143  	-146.649  	-378.317  	-1	1	1
443	3	363.394  	-127.521  	-369.173  	-1	1	1
444	3	350.377  	-109.782  	-346.189  	-1	1	1
445	3	363.529  	-96.6946  	-322.697  	-1	1	1
446	3	390.025  	-104.74  	-311.129  	-1	1	1
447	3	419.702  	-104.202  	-307.041  	-1	1	1
448	3	445.813  	-94.5457  	-316.412  	-1	1	1
449	3	459.585  	-67.3973  	-320.523  	-1	1	1
450	3	455.944  	-37.3083  	-315.124  	-1	1	1
451	3	439.127  	-15.9951  	-298.891  	-1	1	1
452	3	418.914  	3.30822  	-293.493  	-1	1	1
453	3	403.989  	29.6389  	-288.765  	-1	1	1
454	3	390.317  	57.9646  	-288.917  	-1	1	1
455	3	390.738  	83.4352  	-275.042  	-1	1	1
456	3	396.894  	105.929  	-254.611  	-1	1	1
457	3	404.364  	113.063  	-226.283  	-1	1	1
458	3	421.266  	132.898  	-208.674  	-1	1	1
459	3	446.193  	140.118  	-194.132  	-1	1	1
460	3	474.238  	150.136  	-194.39  	-1	1	1
461	3	486.416  	172.771  	-212.356  	-1	1	1
462	3	494.686  	196.354  	-230.582  	-1	1	1
463	3	509.972  	218.138  	-247.07  	-1	1	1
464	3	536.063  	230.853  	-256.944  	-1	1	1
465	3	564.364  	232.378  	-244.804  	-1	1	1
466	3	553.796  	231.511  	-215.227  	-1	1	1
467	3	526.102  	235.744  	-204.669  	-1	1	1
468	3	496.586  	235.788  	-210.32  	-1	1	1
469	3	477.29  	250.099  	-228.706  	-1	1	1
470	3	474.158  	263.378  	-256.106  	-1	1	1
471	3	482.557  	290.439  	-268.012  	-1	1	1
472	3	491.793  	315.845  	-282.156  	-1	1	1
473	3	488.658  	342.387  	-294.381  	-1	1	1
474	3	483.791  	328.502  	-321.175  	-1	1	1
475	3	471.261  	324.898  	-348.669  	-1	1	1
476	3	442.963  	330.876  	-358.464  	-1	1	1
477	3	417.919  	348.257  	-350.235  	-1	1	1
478	3	389.128  	359.226  	-352.419  	-1	1	1
479	3	371.726  	353.846  	-377.235  	-1	1	1
480	3	373.75  	347.54  	-407.301  	-1	1	1
481	3	391.309  	321.868  	-398.701  	-1	1	1
482	3	404.866  	312.998  	-373.414  	-1	1	1
483	3	400.601  	314.175  	-342.862  	-1	1	1
484	3	374.316  	325.17  	-334.642  	-1	1	1
485	3	345.714  	337.296  	-336.924  	-1	1	1
486	3	318.444  	352.859  	-338.04  	-1	1	1
487	3	293.078  	358.627  	-320.632  	-1	1	1
488	3	300.855  	378.069  	-298.193  	-1	1	1
489	3	311.17  	390.196  	-272.132  	-1	1	1
490	3	338.616  	399.894  	-282.223  	-1	1	1
491	3	368.072  	403.894  	-288.907  	-1	1	1
492	3	393.809  	417.053  	-300.985  	-1	1	1
493	3	411.339  	440.607  	-295.2  	-1	1	1
494	3	415.573  	463.578  	-274.944  	-1	1	1
495	3	409.037  	461.596  	-245.798  	-1	1	1
496	3	397.393  	438.556  	-229.821  	-1	1	1
497	3	400.194  	408.267  	-225.088  	-1	1	1
498	3	413.263  	388.255  	-245.919  	-1	1	1
499	3	416.165  	384.475  	-276.455  	-1	1	1
500	3	423.261  	388.065  	-306.369  	-1	1	1
501	3	423.825  	387.646  	-337.094  	-1	1	1
502	3	417.57  	396.755  	-366.22  	-1	1	1
503	3	388.833  	402.239  	-376.093  	-1	1	1
504	3	375.556  	407.319  	-349.601  	-1	1	1
505	3	400.733  	420.048  	-336.616  	-1	1	1
506	3	428.364  	431.605  	-338.961  	-1	1	1
507	3	452.703  	451.167  	-340.16  	-1	1	1
508	3	464.922  	480.013  	-344.208  	-1	1	1
509	3	467.362  	504.829  	-325.573  	-1	1	1
510	3	443.741  	508.436  	-306.447  	-1	1	1
511	3	414.874  	499.339  	-302.553  	-1	1	1
512	3	393.875  	486.108  	-320.094  	-1	1	1
513	3	385.517  	476.155  	-347.977  	-1	1	1
514	3	383.517  	469.17  	-377.849  	-1	1	1
515	3	395.018  	458.857  	-403.201  	-1	1	1
516	3	394.505  	439.691  	-426.795  	-1	1	1
517	3	387.013  	439.608  	-456.243  	-1	1	1
518	3	362.381  	446.403  	-473.913  	-1	1	1
519	3	334.609  	448.038  	-485.736  	-1	1	1
520	3	308.55  	441.716  	-502.258  	-1	1	1
521	3	289.429  	438.44  	-525.015  	-1	1	1
522	3	266.385  	429.352  	-542.644  	-1	1	1
523	3	243.029  	428.398  	-562.088  	-1	1	1
524	3	235.162  	434.885  	-592.721  	-1	1	1
525	3	235.296  	444.672  	-620.605  	-1	1	1
526	3	243.178  	451.742  	-650.743  	-1	1	1
527	3	255.246  	456.549  	-677.265  	-1	1	1
528	3	281.39  	471.75  	-676.271  	-1	1	1
529	3	305.748  	485.957  	-664.952  	-1	1	1
530	3	327.555  	492.165  	-643.326  	-1	1	1
531	3	351.844  	495.202  	-623.589  	-1	1	1
532	3	367.765  	487.623  	-598.146  	-1	1	1
533	3	378.445  	473.953  	-572.591  	-1	1	1
534	3	386.817  	453.389  	-552.267  	-1	1	1
535	3	393.535  	428.961  	-534.386  	-1	1	1
536	3	386.103  	408.755  	-513.769  	-1	1	1
537	3	379.54  	394.438  	-487.205  	-1	1	1
538	3	377.331  	388.855  	-457.156  	-1	1	1
539	3	362.182  	391.864  	-430.144  	-1	1	1
540	3	344.795  	375.198  	-412.279  	-1	1	1
541	3	337.776  	346.371  	-411.596  	-1	1	1
542	3	335.29  	343.111  	-442.164  	-1	1	1
543	3	336.352  	364.031  	-463.578  	-1	1	1
544	3	318.796  	389.174  	-467.681  	-1	1	1
545	3	289.968  	396.019  	-459.374  	-1	1	1
546	3	264.921  	399.527  	-444.614  	-1	1	1
547	3	244.328  	407.59  	-424.353  	-1	1	1
548	3	219.321  	416.557  	-407.543  	-1	1	1
549	3	198.816  	398.111  	-393.472  	-1	1	1
550	3	205.189  	368.865  	-396.127  	-1	1	1
551	3	212.772  	345.381  	-413.449  	-1	1	1
552	3	231.622  	337.608  	-436.059  	-1	1	1
553	3	245.414  	358.648  	-454.018  	-1	1	1
554	3	244.069  	385.304  	-470.872  	-1	1	1
555	3	254.767  	413.574  	-473.685  	-1	1	1
556	3	262.231  	438.246  	-489.361  	-1	1	1
557	3	259.783  	457.829  	-513.563  	-1	1	1
558	3	260.888  	472.233  	-540.269  	-1	1	1
559	3	243.526  	481.208  	-564.891  	-1	1	1
560	3	226.137  	491.521  	-587.797  	-1	1	1
561	3	197.991  	496.886  	-598.011  	-1	1	1
562	3	167.26  	493.146  	-598.97  	-1	1	1
563	3	139.769  	483.376  	-595.241  	-1	1	1
564	3	114.966  	464.29  	-600.257  	-1	1	1
565	3	97.3375  	442.743  	-613.527  	-1	1	1
566	3	88.7477  	422.658  	-635.232  	-1	1	1
567	3	82.6944  	398.41  	-652.81  	-1	1	1
568	3	73.5422  	379.859  	-675.224  	-1	1	1
569	3	64.1781  	372.792  	-703.763  	-1	1	1
570	3	63.2953  	374.494  	-734.791  	-1	1	1
571	3	63.9837  	358.945  	-759.949  	-1	1	1
572	3	60.6835  	335.808  	-778.774  	-1	1	1
573	3	61.6585  	305.818  	-769.172  	-1	1	1
574	3	52.8494  	279.847  	-756.044  	-1	1	1
575	3	49.3206  	256.689  	-736.087  	-1	1	1
576	3	38.235  	245.543  	-710.513  	-1	1	1
577	3	22.8918  	242.568  	-682.491  	-1	1	1
578	3	22.2863  	242.32  	-652.323  	-1	1	1
579	3	15.3473  	233.942  	-623.532  	-1	1	1
580	3	-2.49078  	229.624  	-600.529  	-1	1	1
581	3	-9.8436  	242.949  	-573.722  	-1	1	1
582	3	5.91747  	258.988  	-552.521  	-1	1	1
583	3	26.8041  	276.342  	-541.001  	-1	1	1
584	3	49.3777  	290.966  	-525.291  	-1	1	1
585	3	63.9827  	286.435  	-498.317  	-1	1	1
586	3	49.7237  	299.607  	-474.982  	-1	1	1
587	3	35.7544  	305.119  	-447.992  	-1	1	1
588	3	28.7171  	309.026  	-419.092  	-1	1	1
589	3	35.8178  	323.528  	-394.33  	-1	1	1
590	3	46.0212  	348.656  	-378.59  	-1	1	1
591	3	53.2578  	373.016  	-362.835  	-1	1	1
592	3	72.9988  	391.88  	-348.842  	-1	1	1
593	3	94.6238  	414.067  	-344.849  	-1	1	1
594	3	120.528  	428.026  	-349.264  	-1	1	1
595	3	150.605  	432.213  	-353.947  	-1	1	1
596	3	179.682  	425.387  	-354.361  	-1	1	1
597	3	199.703  	403.112  	-357.71  	-1	1	1
598	3	218.442  	378.295  	-354.659  	-1	1	1
599	3	230.784  	351.44  	-349.638  	-1	1	1
600	3	238.171  	321.63  	-348.389  	-1	1	1
601	3	232.161  	292.221  	-350.75  	-1	1	1
602	3	222.064  	264.916  	-361.181  	-1	1	1
603	3	199.855  	263.734  	-382.477  	-1	1	1
604	3	175.478  	265.854  	-402.059  	-1	1	1
605	3	150.418  	270.972  	-419.055  	-1	1	1
606	3	135.489  	281.463  	-442.476  	-1	1	1
607	3	122.72  	276.172  	-469.787  	-1	1	1
608	3	121.302  	263.213  	-497.639  	-1	1	1
609	3	145.121  	244.706  	-502.785  	-1	1	1
610	3	167.42  	228.833  	-490.227  	-1	1	1
611	3	170.277  	219.746  	-461.488  	-1	1	1
612	3	152.285  	212.52  	-437.726  	-1	1	1
613	3	137.568  	198.29  	-415.585  	-1	1	1
614	3	120.901  	174.318  	-404.485  	-1	1	1
615	3	110.497  	145.734  	-405.602  	-1	1	1
616	3	90.0226  	123.351  	-404.991  	-1	1	1
617	3	84.2864  	94.0986  	-410.043  	-1	1	1
618	3	89.2683  	65.3535  	-417.194  	-1	1	1
619	3	108.416  	44.7492  	-429.022  	-1	1	1
620	3	129.977  	38.0436  	-449.781  	-1	1	1
621	3	153.807  	38.8906  	-469.092  	-1	1	1
622	3	180.004  	40.2848  	-485.502  	-1	1	1
623	3	205.55  	31.4567  	-502.562  	-1	1	1
624	3	233.312  	28.0249  	-514.054  	-1	1	1
625	3	262.16  	32.1359  	-522.915  	-1	1	1
626	3	292.193  	31.4447  	-527.08  	-1	1	1
627	3	311.644  	15.0771  	-508.796  	-1	1	1
628	3	294.318  	5.69754  	-484.953  	-1	1	1
629	3	286.873  	-6.35977  	-457.125  	-1	1	1
630	3	304.537  	-8.82825  	-433.841  	-1	1	1
631	3	335.279  	-11.5991  	-437.2  	-1	1	1
632	3	360.963  	-25.9936  	-446.889  	-1	1	1
633	3	380.318  	-27.862  	-423.705  	-1	1	1
634	3	381.389  	-26.2879  	-391.973  	-1	1	1
635	3	377.725  	-20.9072  	-362.199  	-1	1	1
636	3	374.032  	-18.9366  	-332.349  	-1	1	1
637	3	378.649  	-34.6954  	-305.632  	-1	1	1
638	3	389.262  	-60.3688  	-292.577  	-1	1	1
639	3	395.168  	-60.3626  	-322.402  	-1	1	1
640	3	395.957  	-65.5579  	-351.629  	-1	1	1
641	3	402.701  	-78.338  	-379.339  	-1	1	1
642	3	413.231  	-92.893  	-404.838  	-1	1	1
643	3	430.048  	-116.554  	-412.581  	-1	1	1
644	3	450.98  	-118.831  	-388.433  	-1	1	1
645	3	446.077  	-103.81  	-361.628  	-1	1	1
646	3	436.011  	-75.0796  	-358.141  	-1	1	1
647	3	427.767  	-53.4253  	-378.145  	-1	1	1
648	3	425.68  	-34.1107  	-401.233  	-1	1	1
649	3	430.227  	-8.32561  	-416.867  	-1	1	1
650	3	449.805  	4.73823  	-397.404  	-1	1	1
651	3	470.804  	-2.36822  	-376.675  	-1	1	1
652	3	491.788  	-4.35224  	-356.011  	-1	1	1
653	3	520.398  	-5.61714  	-345.008  	-1	1	1
654	3	547.14  	5.46108  	-358.622  	-1	1	1
655	3	558.5  	20.1173  	-384.419  	-1	1	1
656	3	555.048  	34.863  	-412.051  	-1	1	1
657	3	539.761  	54.578  	-428.33  	-1	1	1
658	3	512.591  	69.1466  	-429.853  	-1	1	1
659	3	493.539  	87.8974  	-417.156  	-1	1	1
660	3	475.028  	90.0746  	-392.586  	-1	1	1
661	3	474.694  	73.6866  	-367.252  	-1	1	1
662	3	472.843  	44.3245  	-355.46  	-1	1	1
663	3	495.669  	32.3016  	-373.015  	-1	1	1
664	3	513.703  	16.8281  	-392.617  	-1	1	1
665	3	517.668  	-10.5308  	-403.867  	-1	1	1
666	3	501.632  	-33.1992  	-390.693  	-1	1	1
667	3	499.745  	-52.5103  	-367.388  	-1	1	1
668	3	500.574  	-47.9557  	-336.266  	-1	1	1
669	3	514.093  	-27.9048  	-316.933  	-1	1	1
670	3	537.245  	-7.20717  	-311.66  	-1	1	1
671	3	556.572  	15.9451  	-314.733  	-1	1	1
672	3	550.974  	36.4458  	-293.345  	-1	1	1
673	3	544.697  	37.5828  	-263.438  	-1	1	1
674	3	531.88  	20.0959  	-243.293  	-1	1	1
675	3	508.238  	3.48678  	-254.341  	-1	1	1
676	3	491.045  	1.31979  	-279.337  	-1	1	1
677	3	490.677  	17.5855  	-305.183  	-1	1	1
678	3	507.604  	37.2248  	-320.361  	-1	1	1
679	3	532.224  	54.1176  	-328.351  	-1	1	1
680	3	559.857  	58.2455  	-340.362  	-1	1	1
681	3	576.338  	62.9186  	-366.857  	-1	1	1
682	3	577.442  	73.9348  	-396.524  	-1	1	1
683	3	572.002  	91.2544  	-421.357  	-1	1	1
684	3	575.018  	103.441  	-448.22  	-1	1	1